# LAMMPS data file written by OVITO Pro 3.7.10
432 atoms
2 atom types
0.0 16.51501 xlo xhi
0.0 16.51501 ylo yhi
0.0 16.51501 zlo zhi

Masses

1 2.014012  #1.00794  # H
2 14.0067  # N

Atoms  # atomic

1 1 2.89575 0.09661 4.55787
2 1 6.5223 0.98353 4.31183
3 1 14.62621 5.99685 0.64068
4 1 3.91794 3.29419 1.46512
5 1 3.7669 1.1034 15.08727
6 1 4.221 6.84461 5.56858
7 1 13.7354 1.83458 1.84459
8 1 15.31652 1.72665 1.55046
9 1 5.33919 7.20437 4.41194
10 1 6.1516 15.97039 3.76
11 1 3.74748 15.59269 2.88209
12 1 5.21459 14.79905 14.8012
13 1 2.9034 16.2149 6.7437
14 1 5.87237 4.00746 4.48333
15 1 3.72269 3.88831 7.96562
16 1 3.48807 10.7347 6.04387
17 1 3.77276 7.15538 3.97214
18 1 0.49016 2.12962 10.34333
19 1 5.03333 1.09041 10.58536
20 1 4.577 0.67197 9.01083
21 1 0.27051 0.78211 9.37747
22 1 4.61796 4.49088 3.61765
23 1 0.56212 11.86848 12.30269
24 1 4.93007 16.03599 7.15021
25 1 15.96303 3.96257 11.4733
26 1 8.01556 3.33064 0.28877
27 1 14.87178 5.58446 9.32792
28 1 6.8316 2.67415 11.4232
29 1 15.97136 0.88844 10.85419
30 1 3.11396 1.43522 13.73007
31 1 2.20274 15.87426 12.27991
32 1 1.21682 0.42607 13.12259
33 1 3.04357 2.53508 14.86675
34 1 7.15694 3.09539 1.73233
35 1 1.77729 16.15807 0.88372
36 1 1.22133 13.16209 6.4567
37 1 0.39586 8.68422 1.70626
38 1 8.5116 9.78885 5.07392
39 1 1.87981 9.94227 11.49164
40 1 14.57855 0.54804 2.3026
41 1 5.05634 10.38705 3.8701
42 1 3.52208 3.13797 11.92585
43 1 2.99723 10.74338 1.28376
44 1 2.55708 10.72627 16.22679
45 1 2.79471 4.57082 11.70219
46 1 7.44455 9.69544 3.78771
47 1 3.52791 3.17052 9.42906
48 1 1.98993 4.32071 2.5202
49 1 0.71354 9.26624 6.37054
50 1 7.67676 12.06901 7.46311
51 1 14.8105 10.87457 0.2333
52 1 3.93817 16.3947 10.37539
53 1 4.37755 4.47503 11.51395
54 1 0.34728 6.11575 11.32871
55 1 4.54018 7.36015 8.54571
56 1 3.35538 6.26928 8.68403
57 1 1.76488 6.73408 10.84396
58 1 8.29295 12.91199 6.18422
59 1 15.18477 3.98027 9.62811
60 1 7.54652 7.16466 4.60901
61 1 14.44223 8.12424 12.31144
62 1 2.75842 5.60019 15.49385
63 1 13.71336 12.17585 10.49791
64 1 1.42897 0.55694 11.52535
65 1 0.91099 7.44776 12.06968
66 1 3.80236 11.42809 3.56439
67 1 6.45315 16.19373 13.34562
68 1 6.42357 15.7932 11.78615
69 1 5.27134 11.82989 2.94713
70 1 1.09901 5.53478 15.30091
71 1 14.62405 4.64709 16.13075
72 1 7.22506 8.39401 7.15725
73 1 1.35888 11.56943 2.84723
74 1 6.33394 13.69825 0.57447
75 1 2.65123 15.8841 15.92916
76 1 2.03181 11.9043 0.51892
77 1 2.77927 12.78509 11.51281
78 1 4.08921 13.14801 6.54108
79 1 4.68895 3.4826 0.0917
80 1 3.65541 2.29678 0.15593
81 1 2.96749 14.16743 5.75984
82 1 7.52244 12.67406 1.04732
83 1 16.01598 11.16796 1.29231
84 1 4.75363 10.72881 14.38004
85 1 15.22248 0.20031 5.57015
86 1 5.09 11.46038 8.76007
87 1 5.13289 15.70566 2.09175
88 1 2.93151 7.83406 8.70033
89 1 4.38395 14.09614 5.27057
90 1 1.15848 9.79768 8.24455
91 1 3.47614 9.84902 7.34813
92 1 3.33079 9.20549 5.81061
93 1 0.69916 10.50351 9.64885
94 1 5.53108 13.08939 8.75662
95 1 14.00095 13.57811 9.70908
96 1 9.09478 13.97442 3.65588
97 1 0.96745 13.81427 15.7285
98 1 0.66708 13.85931 9.16741
99 1 15.60767 12.16893 13.12956
100 1 5.10184 15.70489 12.63664
101 1 16.39781 9.13828 9.09709
102 1 2.65789 13.88646 12.75101
103 1 5.99438 3.11344 10.05397
104 1 7.54513 3.29259 10.10707
105 1 4.1653 13.19226 12.33454
106 1 1.93599 14.53991 10.03583
107 1 1.83556 10.48525 13.17867
108 1 7.50613 12.14071 12.76215
109 1 7.43873 16.10942 4.60615
110 1 13.18419 4.04101 6.68594
111 1 1.88175 5.11625 3.95366
112 1 7.21146 0.82117 0.18808
113 1 9.52222 2.49578 2.21348
114 1 8.47864 1.24782 8.46322
115 1 2.63006 5.9491 1.29119
116 1 3.3738 7.41191 0.82232
117 1 8.56111 1.40107 6.84022
118 1 14.71513 4.18783 7.14483
119 1 4.78249 0.31602 5.74377
120 1 12.61378 14.99747 15.35551
121 1 5.20424 3.11042 3.3427
122 1 10.76872 5.4645 11.68939
123 1 7.21424 5.62289 4.9503
124 1 6.86407 5.01386 7.24654
125 1 8.20835 16.42251 7.4897
126 1 6.41304 7.09929 11.52195
127 1 9.20427 6.60251 7.30843
128 1 8.50735 6.4221 8.74814
129 1 6.58952 5.7002 10.7101
130 1 10.06808 6.61897 10.77612
131 1 1.12442 11.84676 7.3426
132 1 10.34342 4.03744 8.99828
133 1 7.36256 4.62113 1.14925
134 1 5.85177 3.16511 14.1791
135 1 6.64204 7.98159 8.70695
136 1 10.46894 2.45981 13.91374
137 1 5.41533 6.83948 10.30977
138 1 9.98526 1.43227 3.35411
139 1 2.91629 6.69645 13.5018
140 1 3.89907 7.76148 12.79588
141 1 8.82812 1.00417 2.39607
142 1 6.08253 4.3764 13.08872
143 1 5.21264 15.83485 16.04124
144 1 11.70412 3.65349 0.02382
145 1 7.02426 10.22586 5.25841
146 1 10.61551 6.72319 1.46938
147 1 3.9535 12.13507 14.87652
148 1 4.09984 6.36651 1.90049
149 1 6.75859 6.76758 15.43538
150 1 11.45974 10.56865 4.52028
151 1 5.80281 9.60581 1.87791
152 1 6.78647 9.73488 0.6577
153 1 11.03172 12.05719 4.78489
154 1 10.22771 5.17055 1.38579
155 1 7.89238 5.96898 3.56047
156 1 12.57213 5.34563 14.79024
157 1 8.9354 11.40501 6.59787
158 1 10.67126 8.87121 6.56352
159 1 7.48245 13.83122 3.63007
160 1 10.07267 6.44067 8.6675
161 1 10.75322 11.476 3.32793
162 1 6.76799 9.95453 11.52287
163 1 10.84129 13.59076 6.94368
164 1 11.9052 14.70562 6.2856
165 1 5.17297 10.48991 11.56629
166 1 10.7411 10.35533 7.30228
167 1 6.14276 9.3426 8.02837
168 1 11.68355 6.21499 5.02418
169 1 1.84894 4.50167 16.34345
170 1 8.65675 8.88299 10.47091
171 1 6.73873 12.54125 11.35975
172 1 4.53944 6.59072 13.67908
173 1 5.66676 9.19741 10.63387
174 1 5.17131 7.29127 15.41773
175 1 8.06221 9.69532 15.64518
176 1 7.29933 9.61634 14.30677
177 1 5.57755 5.82704 16.1081
178 1 8.57923 10.25719 9.57527
179 1 1.02767 3.72759 3.73855
180 1 8.91359 5.48481 14.38386
181 1 6.27065 12.13725 0.114
182 1 11.10406 13.88466 2.12505
183 1 4.10486 14.68177 16.04973
184 1 6.30059 8.22391 1.05488
185 1 8.96685 14.00424 13.78388
186 1 15.32292 15.51897 9.3441
187 1 5.81098 1.06198 0.97139
188 1 7.0341 0.40643 1.80289
189 1 14.4094 16.10011 8.14366
190 1 11.54452 15.47704 2.52149
191 1 8.41402 12.66433 4.24468
192 1 10.11733 11.67551 0.315
193 1 3.99835 12.5919 9.23505
194 1 15.02552 14.41012 12.9878
195 1 5.97808 0.66845 6.86846
196 1 10.69453 13.96926 5.37478
197 1 15.37166 14.79998 7.93459
198 1 7.54331 14.78551 8.33446
199 1 6.05283 3.6926 7.36477
200 1 7.59769 3.60757 6.77403
201 1 7.69937 14.77685 9.94306
202 1 14.01058 14.68084 11.82511
203 1 7.06039 13.70415 12.32073
204 1 9.85186 9.08568 3.203
205 1 0.37596 14.50791 10.63678
206 1 15.36889 12.8167 4.02226
207 1 16.24229 12.61076 6.81747
208 1 8.36487 10.92452 14.53291
209 1 6.31583 15.42784 9.25628
210 1 9.8488 14.91197 14.84406
211 1 9.46667 1.16994 13.65304
212 1 9.49996 2.40037 12.549
213 1 8.07772 14.76031 14.71124
214 1 14.02849 13.33547 4.85468
215 1 5.46103 12.18686 14.28575
216 1 9.32404 12.9849 8.84084
217 1 13.80414 5.50909 7.1429
218 1 2.47154 1.37371 3.55682
219 1 11.475 6.03758 13.83609
220 1 10.09976 4.39863 6.27074
221 1 12.07918 1.22665 6.62587
222 1 0.58359 3.36889 6.43237
223 1 15.0985 3.13174 5.32255
224 1 15.3872 2.72854 3.80728
225 1 16.34247 2.67129 7.60201
226 1 1.32102 0.23162 3.93558
227 1 10.81871 3.07837 10.2378
228 1 1.25234 0.1661 16.04752
229 1 11.64939 6.81423 11.39234
230 1 1.68102 0.63724 7.08471
231 1 11.41492 7.73678 4.69967
232 1 12.45487 15.66582 9.81469
233 1 1.59171 2.95492 7.70053
234 1 12.92368 3.75968 10.29165
235 1 12.27776 6.49955 8.93605
236 1 12.89519 7.9972 8.46349
237 1 13.28197 2.68035 11.42197
238 1 1.87966 15.78882 7.94008
239 1 12.08198 2.19403 16.07966
240 1 4.67657 14.29183 2.56925
241 1 7.33192 3.50342 13.67604
242 1 16.46863 4.50152 12.89483
243 1 9.50733 6.88491 15.12229
244 1 14.05745 14.35634 0.26512
245 1 13.56534 4.21132 11.78569
246 1 12.53068 0.79033 5.13461
247 1 14.54927 0.59909 14.09502
248 1 15.42404 1.06998 15.34621
249 1 10.98027 0.39784 5.63631
250 1 0.53109 3.17332 12.34217
251 1 12.1726 15.70737 13.90561
252 1 15.90545 12.84838 11.6699
253 1 11.6857 5.65096 2.03713
254 1 1.20215 7.47157 2.4555
255 1 11.49109 12.50174 16.51142
256 1 16.28122 2.12807 4.95317
257 1 0.40028 8.28275 14.67038
258 1 13.07106 9.21757 3.32717
259 1 14.53456 5.47728 3.07711
260 1 13.62856 6.83978 3.2605
261 1 14.15821 8.69056 4.49899
262 1 16.10349 7.47005 2.40907
263 1 10.19742 6.61988 4.97773
264 1 15.32197 6.07607 15.69866
265 1 10.23109 9.10381 8.14097
266 1 16.29566 8.00671 5.96576
267 1 9.42875 7.57385 3.14054
268 1 12.09768 7.00549 7.33188
269 1 14.68252 9.31772 3.13929
270 1 10.51525 9.10106 13.27569
271 1 13.67773 11.86813 7.80281
272 1 13.94338 11.04109 6.51227
273 1 11.58368 9.17105 14.56446
274 1 0.03749 9.02976 4.81161
275 1 9.22014 6.94052 13.52651
276 1 4.10308 2.25679 8.07349
277 1 9.83511 10.06385 10.52892
278 1 13.40961 7.01462 12.78803
279 1 9.43372 13.38435 10.40749
280 1 15.27013 2.09759 14.06066
281 1 12.14288 8.9437 13.01166
282 1 15.62628 9.16597 14.59452
283 1 10.95449 8.96446 0.81982
284 1 12.39149 8.23118 0.66219
285 1 0.36972 9.57544 15.53909
286 1 14.19654 6.94754 11.28296
287 1 12.0744 6.86865 15.18719
288 1 16.34933 4.90448 9.12657
289 1 12.35828 14.21545 3.24065
290 1 1.97034 12.74004 3.81527
291 1 11.92208 16.4935 15.32364
292 1 13.87348 5.77412 4.52688
293 1 13.28214 12.86335 14.03734
294 1 13.71358 2.90778 8.56823
295 1 10.80911 3.09119 5.62109
296 1 9.54626 3.76554 4.82406
297 1 14.51468 1.7394 9.30459
298 1 1.30448 11.41527 4.3734
299 1 8.70669 8.59355 2.15427
300 1 3.13827 10.63279 12.30099
301 1 14.80585 16.01144 12.57285
302 1 15.40328 15.3479 4.75766
303 1 10.5874 2.45532 8.71778
304 1 12.94116 12.36403 6.42555
305 1 12.80275 1.54697 9.09122
306 1 9.95465 12.5544 12.30769
307 1 11.40594 16.20088 10.81886
308 1 10.88809 15.58082 9.3873
309 1 10.95347 13.09577 13.46861
310 1 0.10772 15.90417 5.7373
311 1 10.82327 13.09297 9.56225
312 1 14.50323 10.99032 1.81737
313 1 13.99292 12.02478 3.89431
314 1 0.59831 12.93023 14.47341
315 1 11.20267 2.3119 0.90351
316 1 12.28464 9.83469 0.75659
317 1 11.35685 11.77278 12.58305
318 1 13.69401 12.31745 15.53423
319 1 14.0423 13.65802 1.74786
320 1 15.42596 14.28008 1.12238
321 1 12.95732 11.31302 14.4128
322 1 16.34561 12.62396 15.84923
323 1 10.08783 13.12248 16.00514
324 1 12.63832 13.46472 10.66541
325 2 1.74879 15.8991 16.41344
326 2 14.63544 1.56873 2.27899
327 2 4.40551 7.38562 4.72569
328 2 6.91315 0.11372 3.89748
329 2 4.72073 15.24245 2.90867
330 2 4.77045 0.30572 9.941
331 2 16.36765 1.41952 10.06228
332 2 5.51765 4.02091 3.53377
333 2 16.37468 12.56336 12.52226
334 2 1.92587 0.34757 12.40423
335 2 3.71291 1.88824 14.45062
336 2 7.80872 3.70957 1.22906
337 2 15.15364 5.4424 16.47295
338 2 2.25777 10.9109 0.6057
339 2 3.51974 3.96256 11.3104
340 2 7.56646 9.51897 4.80215
341 2 4.08142 3.09353 8.57865
342 2 3.65407 7.16229 9.0404
343 2 1.18754 6.54818 11.67584
344 2 8.50402 12.25867 6.87899
345 2 15.54779 4.95323 9.72722
346 2 6.11787 15.49526 12.69386
347 2 4.65076 11.02886 3.15688
348 2 1.92323 4.99652 15.43112
349 2 2.12905 10.66299 12.18003
350 2 4.36255 2.76929 0.72439
351 2 3.68063 13.46228 5.63464
352 2 6.51607 12.76751 0.91469
353 2 15.19776 10.57765 1.14191
354 2 3.0203 9.9461 6.44713
355 2 0.80487 9.58551 9.19877
356 2 4.7933 12.40137 8.59153
357 2 13.62446 13.22934 10.59425
358 2 6.72605 3.3739 10.66522
359 2 3.29647 13.5784 11.94466
360 2 0.92956 14.62713 9.78953
361 2 4.58572 15.31437 15.3874
362 2 3.23403 6.73978 1.57982
363 2 8.03651 0.94662 7.55556
364 2 13.99244 4.65165 6.59283
365 2 4.94602 0.43832 6.7462
366 2 9.26852 6.06645 8.18298
367 2 6.39709 6.69174 10.63042
368 2 10.70545 6.4505 11.49304
369 2 0.66887 12.77495 7.21085
370 2 3.75516 7.22719 13.67899
371 2 9.70381 1.52127 2.36809
372 2 6.45315 3.95152 13.95832
373 2 1.93325 4.19848 3.49992
374 2 6.58344 9.12571 1.45702
375 2 10.70952 11.211 4.32895
376 2 11.03016 5.81498 1.2758
377 2 7.95435 6.20457 4.54984
378 2 11.40704 13.84594 6.11447
379 2 5.73749 9.67933 11.54116
380 2 10.21016 9.51231 7.20879
381 2 6.37842 8.35868 7.80198
382 2 7.61883 10.31356 14.96824
383 2 5.89301 6.83402 15.98016
384 2 8.81002 9.89521 10.49853
385 2 4.57633 11.6699 14.19735
386 2 6.60255 0.41863 0.8836
387 2 14.67362 15.25405 8.59226
388 2 11.43023 14.53517 2.92055
389 2 8.29068 13.65488 4.20449
390 2 6.73483 4.12936 6.77165
391 2 7.00742 14.66692 9.18108
392 2 14.3143 15.10046 12.73138
393 2 7.47201 12.81666 12.00151
394 2 9.5753 2.17935 13.52146
395 2 8.97949 14.32678 14.71701
396 2 14.34467 12.98211 3.93277
397 2 11.93551 15.59349 14.86872
398 2 15.88047 3.01067 4.67008
399 2 0.5991 3.28883 7.44314
400 2 2.33222 0.37405 3.73051
401 2 10.2155 3.08346 9.40191
402 2 12.70269 7.03374 8.15398
403 2 12.90299 3.60516 11.31376
404 2 1.94908 16.16456 7.01429
405 2 12.026 2.73837 0.39679
406 2 15.41066 1.13772 14.3524
407 2 11.7408 1.11967 5.67034
408 2 16.16143 3.60591 12.46189
409 2 12.31661 6.26098 14.39115
410 2 13.67832 5.8397 3.51477
411 2 13.94463 9.39286 3.81153
412 2 0.37513 8.09113 2.53385
413 2 11.10341 6.99917 5.30196
414 2 13.2024 11.56484 6.99045
415 2 11.44295 9.42904 13.60493
416 2 16.35158 9.01336 5.84616
417 2 8.90843 6.51563 14.42388
418 2 11.84576 9.0189 0.29643
419 2 0.14505 9.22652 14.6031
420 2 13.65248 7.57637 11.94263
421 2 10.50333 12.64221 0.29839
422 2 9.93528 3.55296 5.73555
423 2 13.72213 1.89029 8.67313
424 2 1.16482 12.12906 3.65502
425 2 9.63959 8.34003 2.48731
426 2 11.6358 16.26578 9.74149
427 2 10.98227 12.73777 12.52274
428 2 15.90059 16.1782 5.04936
429 2 9.90854 13.55849 9.45293
430 2 14.60042 13.73495 0.89951
431 2 13.67978 12.0416 14.55736
432 2 0.77572 12.85491 15.47859
